Title: kicad schematic
Date: Thu Nov 07 00:15:03  2024
Plotname: Transient Analysis
Flags: real
No. Variables: 90
No. Points: 302     
Variables:
	0	time	time
	1	v(net-_c2-pad1_)	voltage
	2	v(x2.net-_q1-pad1_)	voltage
	3	v(net-_r4-pad2_)	voltage
	4	v(x2.net-_q1-pad3_)	voltage
	5	v(x2.net-_q2-pad3_)	voltage
	6	v(x2.net-_q3-pad2_)	voltage
	7	v(x2.net-_q13-pad1_)	voltage
	8	v(x2.net-_c1-pad2_)	voltage
	9	v(net-_v1-pad1_)	voltage
	10	v(x2.net-_q3-pad3_)	voltage
	11	v(unconnected-_x2-pad5_)	voltage
	12	v(unconnected-_x2-pad1_)	voltage
	13	v(net-_v1-pad2_)	voltage
	14	v(x2.net-_q12-pad1_)	voltage
	15	v(x2.net-_q13-pad3_)	voltage
	16	v(x2.net-_q10-pad1_)	voltage
	17	v(x2.net-_c1-pad1_)	voltage
	18	v(x2.net-_q14-pad2_)	voltage
	19	v(x2.net-_q14-pad3_)	voltage
	20	v(x2.net-_q15-pad2_)	voltage
	21	v(x2.net-_q15-pad3_)	voltage
	22	v(x2.net-_q18-pad3_)	voltage
	23	v(out)	voltage
	24	v(x2.net-_q19-pad3_)	voltage
	25	v(in)	voltage
	26	v(net-_r1-pad2_)	voltage
	27	v(net-_c1-pad2_)	voltage
	28	v(net-_r3-pad2_)	voltage
	29	v(x1.net-_q1-pad1_)	voltage
	30	v(x1.net-_q1-pad3_)	voltage
	31	v(x1.net-_q2-pad3_)	voltage
	32	v(x1.net-_q3-pad2_)	voltage
	33	v(x1.net-_q13-pad1_)	voltage
	34	v(x1.net-_c1-pad2_)	voltage
	35	v(x1.net-_q3-pad3_)	voltage
	36	v(unconnected-_x1-pad5_)	voltage
	37	v(unconnected-_x1-pad1_)	voltage
	38	v(x1.net-_q12-pad1_)	voltage
	39	v(x1.net-_q13-pad3_)	voltage
	40	v(x1.net-_q10-pad1_)	voltage
	41	v(x1.net-_c1-pad1_)	voltage
	42	v(x1.net-_q14-pad2_)	voltage
	43	v(x1.net-_q14-pad3_)	voltage
	44	v(x1.net-_q15-pad2_)	voltage
	45	v(x1.net-_q15-pad3_)	voltage
	46	v(x1.net-_q18-pad3_)	voltage
	47	v(x1.net-_q19-pad3_)	voltage
	48	v(q.x1.q19#collCX)	voltage
	49	v(q.x1.q11#collCX)	voltage
	50	v(q.x1.q10#collCX)	voltage
	51	v(q.x1.q9#collCX)	voltage
	52	v(q.x1.q4#collCX)	voltage
	53	v(q.x1.q5#collCX)	voltage
	54	v(q.x1.q6#collCX)	voltage
	55	v(q.x1.q20#collCX)	voltage
	56	v(q.x1.q18#collCX)	voltage
	57	v(q.x1.q17#collCX)	voltage
	58	v(q.x1.q15#collCX)	voltage
	59	v(q.x1.q16#collCX)	voltage
	60	v(q.x1.q14#collCX)	voltage
	61	v(q.x1.q13#collCX)	voltage
	62	v(q.x1.q12#collCX)	voltage
	63	v(q.x1.q7#collCX)	voltage
	64	v(q.x1.q8#collCX)	voltage
	65	v(q.x1.q3#collCX)	voltage
	66	v(q.x1.q2#collCX)	voltage
	67	v(q.x1.q1#collCX)	voltage
	68	v(q.x2.q19#collCX)	voltage
	69	v(q.x2.q11#collCX)	voltage
	70	v(q.x2.q10#collCX)	voltage
	71	v(q.x2.q9#collCX)	voltage
	72	v(q.x2.q4#collCX)	voltage
	73	v(q.x2.q5#collCX)	voltage
	74	v(q.x2.q6#collCX)	voltage
	75	v(q.x2.q20#collCX)	voltage
	76	v(q.x2.q18#collCX)	voltage
	77	v(q.x2.q17#collCX)	voltage
	78	v(q.x2.q15#collCX)	voltage
	79	v(q.x2.q16#collCX)	voltage
	80	v(q.x2.q14#collCX)	voltage
	81	v(q.x2.q13#collCX)	voltage
	82	v(q.x2.q12#collCX)	voltage
	83	v(q.x2.q7#collCX)	voltage
	84	v(q.x2.q8#collCX)	voltage
	85	v(q.x2.q3#collCX)	voltage
	86	v(q.x2.q2#collCX)	voltage
	87	v(q.x2.q1#collCX)	voltage
	88	i(v1)	current
	89	i(v2)	current
Values:
0		0.000000000000000e+00
	-1.613955563705319e+00
	1.678829244385650e+00
	8.087604831184838e-01
	2.788352151417789e-01
	-9.318172564934062e-01
	-1.721099539992792e+00
	-2.501378119812212e-01
	-2.787053935677024e+00
	2.206706629334413e+00
	-2.253441868329680e+00
	-2.791011789817063e+00
	-2.782229346899938e+00
	-2.793293370665587e+00
	-2.207253107583776e+00
	-2.736321180499639e+00
	1.624982593359364e+00
	2.202370151142477e+00
	2.202370051120099e+00
	2.202369884416136e+00
	-2.793293119331810e+00
	-2.793293370664485e+00
	1.621369994079543e+00
	1.619343536461597e+00
	1.619343536491494e+00
	0.000000000000000e+00
	-8.069777730076639e-01
	-5.532031240892125e-05
	-1.613955563711666e+00
	1.679201606973103e+00
	-9.327882061400473e-01
	-5.293313200460062e-01
	-2.572906960700114e+00
	-1.058230704243324e+00
	-1.619446407821548e+00
	-2.793288946438726e+00
	-2.793293370651011e+00
	-2.793293370651226e+00
	-2.207272886011556e+00
	-2.736522501315045e+00
	1.622148649354759e+00
	-1.324093780559642e+00
	-1.652759017329188e+00
	-2.198213072276945e+00
	-2.202944014339194e+00
	-2.788481140723285e+00
	-1.613955533934501e+00
	-1.617990512419826e+00
	-2.793216134904755e+00
	-1.324000114077815e+00
	1.622238730822170e+00
	-1.058220050838274e+00
	1.679211880488505e+00
	-1.619435485860582e+00
	-2.572906960696728e+00
	-1.324093780558625e+00
	2.206706628222522e+00
	-1.619446407821117e+00
	-2.198308087757938e+00
	-2.198215186414538e+00
	-1.324114410242094e+00
	-1.058241880295220e+00
	-2.207369648432691e+00
	-2.572906960697778e+00
	-1.619446407821119e+00
	2.206706629250843e+00
	1.679190340645072e+00
	1.679201606967014e+00
	-2.793293370660589e+00
	2.202371202359821e+00
	1.625063638917208e+00
	-2.501271186340272e-01
	1.678839666175188e+00
	-2.787053935674484e+00
	-1.721088453454543e+00
	2.202370151139676e+00
	2.206626622218183e+00
	-2.787053935674246e+00
	2.202369884408920e+00
	2.202369884408922e+00
	2.202370151140275e+00
	-2.501490293938392e-01
	-2.207349942406924e+00
	-1.721110428667193e+00
	-2.787053935687323e+00
	2.206693573250601e+00
	1.678829244380675e+00
	1.678817816034585e+00
	-4.282762999425722e-04
	0.000000000000000e+00
1		1.000000000000000e-04
	-1.613955563653363e+00
	1.678829244463510e+00
	8.087604831565456e-01
	2.788352151815999e-01
	-9.318172564453504e-01
	-1.721099539915833e+00
	-2.501378119396632e-01
	-2.787053935600105e+00
	2.206706629412333e+00
	-2.253441868252679e+00
	-2.791011789739501e+00
	-2.782229346822292e+00
	-2.793293370587667e+00
	-2.207253107505827e+00
	-2.736321180421708e+00
	1.624982593437276e+00
	2.202370151219815e+00
	2.202370051195431e+00
	2.202369884488133e+00
	-2.793293119253850e+00
	-2.793293370586565e+00
	1.621369994155650e+00
	1.619343536537609e+00
	1.619343536567506e+00
	4.052161497917507e-02
	-8.069777729714924e-01
	-5.431443155689877e-05
	-1.613955563659710e+00
	1.679201606519997e+00
	-9.327878267072318e-01
	-5.293303150717925e-01
	-2.572906484016949e+00
	-1.058229699497398e+00
	-1.619446407021957e+00
	-2.793288946038196e+00
	-2.793293370573090e+00
	-2.793293370573305e+00
	-2.207272885932338e+00
	-2.736522501000453e+00
	1.622148649432761e+00
	-1.324093780507556e+00
	-1.652759017276930e+00
	-2.198213072224421e+00
	-2.202944014178555e+00
	-2.788481140632644e+00
	-1.613955533882545e+00
	-1.617990512367795e+00
	-2.793216134826836e+00
	-1.324000114025729e+00
	1.622238730900172e+00
	-1.058219046092280e+00
	1.679211880035610e+00
	-1.619435485060734e+00
	-2.572906484013557e+00
	-1.324093780506538e+00
	2.206706628300442e+00
	-1.619446407021526e+00
	-2.198308087705665e+00
	-2.198215186361763e+00
	-1.324114410190008e+00
	-1.058240875549347e+00
	-2.207369648353478e+00
	-2.572906484014615e+00
	-1.619446407021528e+00
	2.206706629328762e+00
	1.679190340191727e+00
	1.679201606513909e+00
	-2.793293370582669e+00
	2.202371202437161e+00
	1.625063638995120e+00
	-2.501271185924692e-01
	1.678839666253047e+00
	-2.787053935597565e+00
	-1.721088453377585e+00
	2.202370151217013e+00
	2.206626622296099e+00
	-2.787053935597327e+00
	2.202369884480917e+00
	2.202369884480919e+00
	2.202370151217612e+00
	-2.501490293522812e-01
	-2.207349942328976e+00
	-1.721110428590233e+00
	-2.787053935610404e+00
	2.206693573328520e+00
	1.678829244458536e+00
	1.678817816112446e+00
	-4.282763002528577e-04
	-3.241648727865848e-09
2		2.000000000000000e-04
	-1.613955563658048e+00
	1.678829244453906e+00
	8.087604831518240e-01
	2.788352151766498e-01
	-9.318172564502198e-01
	-1.721099539924948e+00
	-2.501378119448390e-01
	-2.787053935608396e+00
	2.206706629402710e+00
	-2.253441868261718e+00
	-2.791011789748681e+00
	-2.782229346831741e+00
	-2.793293370597290e+00
	-2.207253107515493e+00
	-2.736321180431358e+00
	1.624982593427607e+00
	2.202370151210224e+00
	2.202370051185841e+00
	2.202369884478542e+00
	-2.793293119263470e+00
	-2.793293370596188e+00
	1.621369994146213e+00
	1.619343536528184e+00
	1.619343536558081e+00
	8.101365276397314e-02
	-8.069777729839251e-01
	-5.431513954305735e-05
	-1.613955563664395e+00
	1.679201606588301e+00
	-9.327878242759462e-01
	-5.293303156705884e-01
	-2.572906472849685e+00
	-1.058229699991969e+00
	-1.619446407191085e+00
	-2.793288946284518e+00
	-2.793293370582716e+00
	-2.793293370582931e+00
	-2.207272885943087e+00
	-2.736522501012215e+00
	1.622148649423145e+00
	-1.324093780512447e+00
	-1.652759017281626e+00
	-2.198213072228813e+00
	-2.202944014206733e+00
	-2.788481140645120e+00
	-1.613955533887230e+00
	-1.617990512372442e+00
	-2.793216134836459e+00
	-1.324000114030620e+00
	1.622238730890555e+00
	-1.058219046586873e+00
	1.679211880103882e+00
	-1.619435485229920e+00
	-2.572906472846299e+00
	-1.324093780511429e+00
	2.206706628290819e+00
	-1.619446407190655e+00
	-2.198308087710001e+00
	-2.198215186366211e+00
	-1.324114410194898e+00
	-1.058240876043914e+00
	-2.207369648364224e+00
	-2.572906472847349e+00
	-1.619446407190657e+00
	2.206706629319138e+00
	1.679190340260073e+00
	1.679201606582213e+00
	-2.793293370592292e+00
	2.202371202427570e+00
	1.625063638985451e+00
	-2.501271185976451e-01
	1.678839666243444e+00
	-2.787053935605857e+00
	-1.721088453386701e+00
	2.202370151207423e+00
	2.206626622286477e+00
	-2.787053935605619e+00
	2.202369884471326e+00
	2.202369884471328e+00
	2.202370151208021e+00
	-2.501490293574570e-01
	-2.207349942338641e+00
	-1.721110428599349e+00
	-2.787053935618695e+00
	2.206693573318898e+00
	1.678829244448932e+00
	1.678817816102842e+00
	-4.282763001873502e-04
	-3.239363079422742e-09
3		4.000000000000000e-04
	-1.613955563711550e+00
	1.678829244398713e+00
	8.087604831246287e-01
	2.788352151496548e-01
	-9.318172564936991e-01
	-1.721099539983505e+00
	-2.501378119716133e-01
	-2.787053935663012e+00
	2.206706629347554e+00
	-2.253441868319614e+00
	-2.791011789803817e+00
	-2.782229346887716e+00
	-2.793293370652446e+00
	-2.207253107570614e+00
	-2.736321180486483e+00
	1.624982593372475e+00
	2.202370151154868e+00
	2.202370051130485e+00
	2.202369884423186e+00
	-2.793293119318629e+00
	-2.793293370651344e+00
	1.621369994091744e+00
	1.619343536473783e+00
	1.619343536503680e+00
	1.617908174895852e-01
	-8.069777730107238e-01
	-5.432027579182602e-05
	-1.613955563717898e+00
	1.679201606536594e+00
	-9.327878210922985e-01
	-5.293303208011881e-01
	-2.572906455989773e+00
	-1.058229705120339e+00
	-1.619446407253814e+00
	-2.793288946340281e+00
	-2.793293370637870e+00
	-2.793293370638084e+00
	-2.207272885998202e+00
	-2.736522501068531e+00
	1.622148649367936e+00
	-1.324093780566477e+00
	-1.652759017335848e+00
	-2.198213072283334e+00
	-2.202944014262470e+00
	-2.788481140700366e+00
	-1.613955533940732e+00
	-1.617990512426078e+00
	-2.793216134891613e+00
	-1.324000114084650e+00
	1.622238730835347e+00
	-1.058219051715244e+00
	1.679211880052174e+00
	-1.619435485292651e+00
	-2.572906455986387e+00
	-1.324093780565459e+00
	2.206706628235663e+00
	-1.619446407253383e+00
	-2.198308087764520e+00
	-2.198215186420735e+00
	-1.324114410248929e+00
	-1.058240881172283e+00
	-2.207369648419338e+00
	-2.572906455987436e+00
	-1.619446407253385e+00
	2.206706629263981e+00
	1.679190340208368e+00
	1.679201606530506e+00
	-2.793293370647448e+00
	2.202371202372214e+00
	1.625063638930319e+00
	-2.501271186244193e-01
	1.678839666188251e+00
	-2.787053935660472e+00
	-1.721088453445257e+00
	2.202370151152067e+00
	2.206626622231323e+00
	-2.787053935660234e+00
	2.202369884415970e+00
	2.202369884415972e+00
	2.202370151152666e+00
	-2.501490293842313e-01
	-2.207349942393762e+00
	-1.721110428657905e+00
	-2.787053935673311e+00
	2.206693573263742e+00
	1.678829244393739e+00
	1.678817816047649e+00
	-4.282763001850568e-04
	-3.222810509526135e-09
4		8.000000000000000e-04
	-1.613955563707599e+00
	1.678829244402782e+00
	8.087604831270393e-01
	2.788352151511237e-01
	-9.318172564910320e-01
	-1.721099539974568e+00
	-2.501378119710916e-01
	-2.787053935658601e+00
	2.206706629351509e+00
	-2.253441868311486e+00
	-2.791011789799498e+00
	-2.782229346882514e+00
	-2.793293370648491e+00
	-2.207253107566624e+00
	-2.736321180482506e+00
	1.624982593376494e+00
	2.202370151159825e+00
	2.202370051139338e+00
	2.202369884438527e+00
	-2.793293119314680e+00
	-2.793293370647389e+00
	1.621369994096622e+00
	1.619343536478654e+00
	1.619343536508551e+00
	3.216938706695075e-01
	-8.069777730087352e-01
	-5.433563508639562e-05
	-1.613955563713946e+00
	1.679201606547254e+00
	-9.327878173474179e-01
	-5.293303361491531e-01
	-2.572906436954832e+00
	-1.058229720467263e+00
	-1.619446407254365e+00
	-2.793288946333730e+00
	-2.793293370633915e+00
	-2.793293370634131e+00
	-2.207272885994152e+00
	-2.736522501068093e+00
	1.622148649371811e+00
	-1.324093780560735e+00
	-1.652759017330771e+00
	-2.198213072279285e+00
	-2.202944014259066e+00
	-2.788481140696495e+00
	-1.613955533936781e+00
	-1.617990512422113e+00
	-2.793216134887658e+00
	-1.324000114078908e+00
	1.622238730839222e+00
	-1.058219067062168e+00
	1.679211880062832e+00
	-1.619435485293204e+00
	-2.572906436951446e+00
	-1.324093780559718e+00
	2.206706628239618e+00
	-1.619446407253934e+00
	-2.198308087760470e+00
	-2.198215186416687e+00
	-1.324114410243188e+00
	-1.058240896519206e+00
	-2.207369648415288e+00
	-2.572906436952497e+00
	-1.619446407253936e+00
	2.206706629267937e+00
	1.679190340219031e+00
	1.679201606541166e+00
	-2.793293370643493e+00
	2.202371202377169e+00
	1.625063638934338e+00
	-2.501271186238976e-01
	1.678839666192320e+00
	-2.787053935656061e+00
	-1.721088453436320e+00
	2.202370151157024e+00
	2.206626622235278e+00
	-2.787053935655823e+00
	2.202369884431311e+00
	2.202369884431314e+00
	2.202370151157623e+00
	-2.501490293837095e-01
	-2.207349942389772e+00
	-1.721110428648969e+00
	-2.787053935668899e+00
	2.206693573267697e+00
	1.678829244397808e+00
	1.678817816051717e+00
	-4.282763001847020e-04
	-3.173312232042547e-09
5		1.600000000000000e-03
	-1.613955563722137e+00
	1.678829244387001e+00
	8.087604831189819e-01
	2.788352151416710e-01
	-9.318172565041813e-01
	-1.721099539988167e+00
	-2.501378119819379e-01
	-2.787053935676597e+00
	2.206706629335591e+00
	-2.253441868325752e+00
	-2.791011789815970e+00
	-2.782229346897939e+00
	-2.793293370664409e+00
	-2.207253107582490e+00
	-2.736321180498387e+00
	1.624982593360580e+00
	2.202370151143521e+00
	2.202370051120337e+00
	2.202369884415030e+00
	-2.793293119330621e+00
	-2.793293370663306e+00
	1.621369994080581e+00
	1.619343536462634e+00
	1.619343536492531e+00
	6.284175276975524e-01
	-8.069777730161262e-01
	-5.440146512701790e-05
	-1.613955563728483e+00
	1.679201606561079e+00
	-9.327878261153751e-01
	-5.293304019275529e-01
	-2.572906496848918e+00
	-1.058229786238166e+00
	-1.619446407308130e+00
	-2.793288946371508e+00
	-2.793293370649832e+00
	-2.793293370650048e+00
	-2.207272886010112e+00
	-2.736522501099402e+00
	1.622148649356019e+00
	-1.324093780577348e+00
	-1.652759017346662e+00
	-2.198213072294056e+00
	-2.202944014279498e+00
	-2.788481140713107e+00
	-1.613955533951319e+00
	-1.617990512436682e+00
	-2.793216134903576e+00
	-1.324000114095521e+00
	1.622238730823430e+00
	-1.058219132833074e+00
	1.679211880076645e+00
	-1.619435485346983e+00
	-2.572906496845532e+00
	-1.324093780576330e+00
	2.206706628223700e+00
	-1.619446407307700e+00
	-2.198308087775226e+00
	-2.198215186431471e+00
	-1.324114410259799e+00
	-1.058240962290106e+00
	-2.207369648431247e+00
	-2.572906496846581e+00
	-1.619446407307702e+00
	2.206706629252019e+00
	1.679190340232868e+00
	1.679201606554991e+00
	-2.793293370659411e+00
	2.202371202360866e+00
	1.625063638918423e+00
	-2.501271186347440e-01
	1.678839666176539e+00
	-2.787053935674058e+00
	-1.721088453449918e+00
	2.202370151140720e+00
	2.206626622219361e+00
	-2.787053935673820e+00
	2.202369884407814e+00
	2.202369884407816e+00
	2.202370151141319e+00
	-2.501490293945559e-01
	-2.207349942405639e+00
	-1.721110428662568e+00
	-2.787053935686896e+00
	2.206693573251778e+00
	1.678829244382027e+00
	1.678817816035937e+00
	-4.282763001665087e-04
	-2.961162225119174e-09
6		3.200000000000000e-03
	-1.613955563755515e+00
	1.678829244348150e+00
	8.087604830996540e-01
	2.788352151240286e-01
	-9.318172565310033e-01
	-1.721099540032786e+00
	-2.501378119978763e-01
	-2.787053935714638e+00
	2.206706629296817e+00
	-2.253441868369261e+00
	-2.791011789854770e+00
	-2.782229346938127e+00
	-2.793293370703183e+00
	-2.207253107621202e+00
	-2.736321180537112e+00
	1.624982593321796e+00
	2.202370151104077e+00
	2.202370051075907e+00
	2.202369884362289e+00
	-2.793293119369422e+00
	-2.793293370702081e+00
	1.621369994041767e+00
	1.619343536423868e+00
	1.619343536453765e+00
	1.141220813577855e+00
	-8.069777730328885e-01
	-5.464793266788913e-05
	-1.613955563761862e+00
	1.679201606632739e+00
	-9.327878995422599e-01
	-5.293306481983662e-01
	-2.572906895847391e+00
	-1.058230032477366e+00
	-1.619446407484312e+00
	-2.793288946481353e+00
	-2.793293370688608e+00
	-2.793293370688823e+00
	-2.207272886049051e+00
	-2.736522501195767e+00
	1.622148649317183e+00
	-1.324093780610961e+00
	-1.652759017380440e+00
	-2.198213072328090e+00
	-2.202944014334090e+00
	-2.788481140754314e+00
	-1.613955533984697e+00
	-1.617990512470147e+00
	-2.793216134942348e+00
	-1.324000114129134e+00
	1.622238730784594e+00
	-1.058219379072285e+00
	1.679211880148261e+00
	-1.619435485523213e+00
	-2.572906895844005e+00
	-1.324093780609944e+00
	2.206706628184927e+00
	-1.619446407483881e+00
	-2.198308087809213e+00
	-2.198215186465553e+00
	-1.324114410293413e+00
	-1.058241208529294e+00
	-2.207369648470186e+00
	-2.572906895845055e+00
	-1.619446407483883e+00
	2.206706629213246e+00
	1.679190340304577e+00
	1.679201606626651e+00
	-2.793293370698185e+00
	2.202371202321423e+00
	1.625063638879639e+00
	-2.501271186506823e-01
	1.678839666137688e+00
	-2.787053935712099e+00
	-1.721088453494538e+00
	2.202370151101276e+00
	2.206626622180589e+00
	-2.787053935711860e+00
	2.202369884355073e+00
	2.202369884355075e+00
	2.202370151101874e+00
	-2.501490294104942e-01
	-2.207349942444351e+00
	-1.721110428707186e+00
	-2.787053935724937e+00
	2.206693573213006e+00
	1.678829244343176e+00
	1.678817815997086e+00
	-4.282763001056445e-04
	-2.166873098359260e-09
7		6.400000000000000e-03
	-1.613955563759244e+00
	1.678829244327540e+00
	8.087604830895712e-01
	2.788352151144299e-01
	-9.318172565367107e-01
	-1.721099540052883e+00
	-2.501378120069828e-01
	-2.787053935733619e+00
	2.206706629276269e+00
	-2.253441868389233e+00
	-2.791011789874804e+00
	-2.782229346958503e+00
	-2.793293370723731e+00
	-2.207253107641769e+00
	-2.736321180557672e+00
	1.624982593301201e+00
	2.202370151083529e+00
	2.202370051060758e+00
	2.202369884356141e+00
	-2.793293119390007e+00
	-2.793293370722628e+00
	1.621369994021547e+00
	1.619343536403674e+00
	1.619343536433571e+00
	1.481236469179601e+00
	-8.069777730350034e-01
	-5.546515731739758e-05
	-1.613955563765591e+00
	1.679201606982622e+00
	-9.327882169319295e-01
	-5.293314647727739e-01
	-2.572907300445382e+00
	-1.058230848949105e+00
	-1.619446407965270e+00
	-2.793288946549601e+00
	-2.793293370709154e+00
	-2.793293370709370e+00
	-2.207272886069904e+00
	-2.736522501407137e+00
	1.622148649296675e+00
	-1.324093780614381e+00
	-1.652759017384005e+00
	-2.198213072331879e+00
	-2.202944014406994e+00
	-2.788481140782914e+00
	-1.613955533988426e+00
	-1.617990512473884e+00
	-2.793216134962896e+00
	-1.324000114132553e+00
	1.622238730764086e+00
	-1.058220195544062e+00
	1.679211880497998e+00
	-1.619435486004334e+00
	-2.572907300441996e+00
	-1.324093780613363e+00
	2.206706628164378e+00
	-1.619446407964839e+00
	-2.198308087812842e+00
	-2.198215186469502e+00
	-1.324114410296833e+00
	-1.058242025000994e+00
	-2.207369648491038e+00
	-2.572907300443045e+00
	-1.619446407964841e+00
	2.206706629192699e+00
	1.679190340654621e+00
	1.679201606976534e+00
	-2.793293370718733e+00
	2.202371202300875e+00
	1.625063638859044e+00
	-2.501271186597888e-01
	1.678839666117078e+00
	-2.787053935731080e+00
	-1.721088453514636e+00
	2.202370151080728e+00
	2.206626622160042e+00
	-2.787053935730841e+00
	2.202369884348925e+00
	2.202369884348927e+00
	2.202370151081326e+00
	-2.501490294196008e-01
	-2.207349942464917e+00
	-1.721110428727284e+00
	-2.787053935743918e+00
	2.206693573192457e+00
	1.678829244322566e+00
	1.678817815976476e+00
	-4.282762999043986e-04
	4.667907342272800e-10
8		9.837715438403906e-03
	-1.613955563801259e+00
	1.678829244268708e+00
	8.087604830605076e-01
	2.788352150853268e-01
	-9.318172565738446e-01
	-1.721099540110349e+00
	-2.501378120361061e-01
	-2.787053935797929e+00
	2.206706629217285e+00
	-2.253441868447645e+00
	-2.791011789935400e+00
	-2.782229347017316e+00
	-2.793293370782715e+00
	-2.207253107700911e+00
	-2.736321180616756e+00
	1.624982593242150e+00
	2.202370151024391e+00
	2.202370050998738e+00
	2.202369884289328e+00
	-2.793293119448846e+00
	-2.793293370781611e+00
	1.621369993963350e+00
	1.619343536345550e+00
	1.619343536375446e+00
	6.975450324186667e-01
	-8.069777730558850e-01
	-5.630728342521507e-05
	-1.613955563807606e+00
	1.679201607301563e+00
	-9.327885946894584e-01
	-5.293323062357121e-01
	-2.572907197155577e+00
	-1.058231690312956e+00
	-1.619446408488360e+00
	-2.793288946594072e+00
	-2.793293370768140e+00
	-2.793293370768355e+00
	-2.207272886129281e+00
	-2.736522501662762e+00
	1.622148649237686e+00
	-1.324093780658417e+00
	-1.652759017427564e+00
	-2.198213072374705e+00
	-2.202944014519332e+00
	-2.788481140850104e+00
	-1.613955534030441e+00
	-1.617990512516006e+00
	-2.793216135021878e+00
	-1.324000114176590e+00
	1.622238730705097e+00
	-1.058221036907952e+00
	1.679211880816790e+00
	-1.619435486527589e+00
	-2.572907197152192e+00
	-1.324093780657400e+00
	2.206706628105394e+00
	-1.619446408487929e+00
	-2.198308087855506e+00
	-2.198215186512490e+00
	-1.324114410340869e+00
	-1.058242866364805e+00
	-2.207369648550414e+00
	-2.572907197153242e+00
	-1.619446408487931e+00
	2.206706629133715e+00
	1.679190340973725e+00
	1.679201607295475e+00
	-2.793293370777716e+00
	2.202371202241737e+00
	1.625063638799993e+00
	-2.501271186889121e-01
	1.678839666058246e+00
	-2.787053935795390e+00
	-1.721088453572101e+00
	2.202370151021589e+00
	2.206626622101061e+00
	-2.787053935795152e+00
	2.202369884282112e+00
	2.202369884282113e+00
	2.202370151022188e+00
	-2.501490294487240e-01
	-2.207349942524059e+00
	-1.721110428784749e+00
	-2.787053935808227e+00
	2.206693573133472e+00
	1.678829244263734e+00
	1.678817815917644e+00
	-4.282762997005803e-04
	3.180704161388339e-09
9		1.360151791353222e-02
	-1.613955563766371e+00
	1.678829244305283e+00
	8.087604830785685e-01
	2.788352151022432e-01
	-9.318172565460854e-01
	-1.721099540071748e+00
	-2.501378120203498e-01
	-2.787053935753611e+00
	2.206706629253888e+00
	-2.253441868408407e+00
	-2.791011789896277e+00
	-2.782229346979926e+00
	-2.793293370746112e+00
	-2.207253107664295e+00
	-2.736321180580150e+00
	1.624982593278807e+00
	2.202370151061218e+00
	2.202370051034971e+00
	2.202369884324556e+00
	-2.793293119412236e+00
	-2.793293370745010e+00
	1.621369993999587e+00
	1.619343536381741e+00
	1.619343536411638e+00
	-7.624688819384720e-01
	-8.069777730380767e-01
	-5.625923060863232e-05
	-1.613955563772718e+00
	1.679201607313720e+00
	-9.327886357932756e-01
	-5.293322582283385e-01
	-2.572907006159350e+00
	-1.058231642318719e+00
	-1.619446408415498e+00
	-2.793288946521824e+00
	-2.793293370731535e+00
	-2.793293370731751e+00
	-2.207272886092523e+00
	-2.736522501614816e+00
	1.622148649274219e+00
	-1.324093780621528e+00
	-1.652759017391198e+00
	-2.198213072339147e+00
	-2.202944014478397e+00
	-2.788481140812834e+00
	-1.613955533995552e+00
	-1.617990512481030e+00
	-2.793216134985276e+00
	-1.324000114139701e+00
	1.622238730741630e+00
	-1.058220988913711e+00
	1.679211880828956e+00
	-1.619435486454714e+00
	-2.572907006155964e+00
	-1.324093780620510e+00
	2.206706628141998e+00
	-1.619446408415067e+00
	-2.198308087819961e+00
	-2.198215186476919e+00
	-1.324114410303980e+00
	-1.058242818370570e+00
	-2.207369648513656e+00
	-2.572907006157014e+00
	-1.619446408415069e+00
	2.206706629170318e+00
	1.679190340985870e+00
	1.679201607307632e+00
	-2.793293370741114e+00
	2.202371202278565e+00
	1.625063638836651e+00
	-2.501271186731558e-01
	1.678839666094821e+00
	-2.787053935751072e+00
	-1.721088453533500e+00
	2.202370151058417e+00
	2.206626622137662e+00
	-2.787053935750833e+00
	2.202369884317340e+00
	2.202369884317342e+00
	2.202370151059016e+00
	-2.501490294329677e-01
	-2.207349942487443e+00
	-1.721110428746150e+00
	-2.787053935763911e+00
	2.206693573170075e+00
	1.678829244300308e+00
	1.678817815954219e+00
	-4.282762997158270e-04
	3.025844549105005e-09
10		1.672819369291770e-02
	-1.613955563765040e+00
	1.678829244321424e+00
	8.087604830865072e-01
	2.788352151109555e-01
	-9.318172565416654e-01
	-1.721099540061372e+00
	-2.501378120108660e-01
	-2.787053935743717e+00
	2.206706629269989e+00
	-2.253441868397827e+00
	-2.791011789882385e+00
	-2.782229346965473e+00
	-2.793293370730011e+00
	-2.207253107648137e+00
	-2.736321180564011e+00
	1.624982593294902e+00
	2.202370151077321e+00
	2.202370051051430e+00
	2.202369884341612e+00
	-2.793293119396158e+00
	-2.793293370728909e+00
	1.621369994015432e+00
	1.619343536397567e+00
	1.619343536427463e+00
	-1.472202680031674e+00
	-8.069777730372039e-01
	-5.550836909019477e-05
	-1.613955563771386e+00
	1.679201606990534e+00
	-9.327883507194032e-01
	-5.293315079570575e-01
	-2.572906630969411e+00
	-1.058230892134559e+00
	-1.619446407984933e+00
	-2.793288946441718e+00
	-2.793293370715435e+00
	-2.793293370715652e+00
	-2.207272886075997e+00
	-2.736522501423290e+00
	1.622148649290346e+00
	-1.324093780620927e+00
	-1.652759017390291e+00
	-2.198213072337758e+00
	-2.202944014414850e+00
	-2.788481140789436e+00
	-1.613955533994221e+00
	-1.617990512479690e+00
	-2.793216134969176e+00
	-1.324000114139100e+00
	1.622238730757757e+00
	-1.058220238729517e+00
	1.679211880505904e+00
	-1.619435486024002e+00
	-2.572906630966024e+00
	-1.324093780619909e+00
	2.206706628158098e+00
	-1.619446407984502e+00
	-2.198308087818716e+00
	-2.198215186475385e+00
	-1.324114410303379e+00
	-1.058242068186447e+00
	-2.207369648497131e+00
	-2.572906630967075e+00
	-1.619446407984504e+00
	2.206706629186417e+00
	1.679190340662539e+00
	1.679201606984446e+00
	-2.793293370725013e+00
	2.202371202294667e+00
	1.625063638852746e+00
	-2.501271186636721e-01
	1.678839666110961e+00
	-2.787053935741178e+00
	-1.721088453523124e+00
	2.202370151074520e+00
	2.206626622153762e+00
	-2.787053935740939e+00
	2.202369884334396e+00
	2.202369884334398e+00
	2.202370151075119e+00
	-2.501490294234840e-01
	-2.207349942471285e+00
	-1.721110428735771e+00
	-2.787053935754015e+00
	2.206693573186177e+00
	1.678829244316449e+00
	1.678817815970360e+00
	-4.282762998975686e-04
	6.060487409333402e-10
11		1.982369203014865e-02
	-1.613955563686278e+00
	1.678829244417642e+00
	8.087604831336466e-01
	2.788352151567648e-01
	-9.318172564757606e-01
	-1.721099539958074e+00
	-2.501378119664247e-01
	-2.787053935644400e+00
	2.206706629366212e+00
	-2.253441868295362e+00
	-2.791011789784875e+00
	-2.782229346867387e+00
	-2.793293370633788e+00
	-2.207253107551934e+00
	-2.736321180467814e+00
	1.624982593391090e+00
	2.202370151173333e+00
	2.202370051147162e+00
	2.202369884436881e+00
	-2.793293119299918e+00
	-2.793293370632686e+00
	1.621369994109913e+00
	1.619343536491929e+00
	1.619343536521826e+00
	-1.199986569858498e+00
	-8.069777729978419e-01
	-5.469565646665975e-05
	-1.613955563692625e+00
	1.679201606721737e+00
	-9.327879950661991e-01
	-5.293306958886901e-01
	-2.572906261713019e+00
	-1.058230080166059e+00
	-1.619446407434076e+00
	-2.793288946287659e+00
	-2.793293370619211e+00
	-2.793293370619427e+00
	-2.207272885979530e+00
	-2.736522501137385e+00
	1.622148649386605e+00
	-1.324093780539911e+00
	-1.652759017309595e+00
	-2.198213072257564e+00
	-2.202944014266533e+00
	-2.788481140685202e+00
	-1.613955533915460e+00
	-1.617990512400741e+00
	-2.793216134872957e+00
	-1.324000114058084e+00
	1.622238730854016e+00
	-1.058219426760980e+00
	1.679211880237251e+00
	-1.619435485472985e+00
	-2.572906261709632e+00
	-1.324093780538893e+00
	2.206706628254321e+00
	-1.619446407433646e+00
	-2.198308087738682e+00
	-2.198215186395034e+00
	-1.324114410222363e+00
	-1.058241256217985e+00
	-2.207369648400666e+00
	-2.572906261710683e+00
	-1.619446407433648e+00
	2.206706629282639e+00
	1.679190340393582e+00
	1.679201606715649e+00
	-2.793293370628790e+00
	2.202371202390680e+00
	1.625063638948934e+00
	-2.501271186192307e-01
	1.678839666207180e+00
	-2.787053935641860e+00
	-1.721088453419825e+00
	2.202370151170531e+00
	2.206626622249980e+00
	-2.787053935641622e+00
	2.202369884429666e+00
	2.202369884429667e+00
	2.202370151171130e+00
	-2.501490293790426e-01
	-2.207349942375082e+00
	-1.721110428632475e+00
	-2.787053935654699e+00
	2.206693573282398e+00
	1.678829244412668e+00
	1.678817816066578e+00
	-4.282763001027344e-04
	-2.013074132284372e-09
12		2.364905953639609e-02
	-1.613955563665908e+00
	1.678829244448806e+00
	8.087604831489458e-01
	2.788352151722773e-01
	-9.318172564571484e-01
	-1.721099539928157e+00
	-2.501378119507089e-01
	-2.787053935611108e+00
	2.206706629397371e+00
	-2.253441868264960e+00
	-2.791011789753098e+00
	-2.782229346836454e+00
	-2.793293370602629e+00